# vtk DataFile Version 3.0
Example Teapot data file
ASCII
DATASET POLYDATA
POINTS 10 FLOAT
   3.50000E+00   2.19615E+00   1.80000E+01
   3.45947E+00   2.28939E+00   1.80538E+01
   3.45117E+00   2.35599E+00   1.80923E+01
   3.46924E+00   2.39596E+00   1.81154E+01
   3.50781E+00   2.40928E+00   1.81230E+01
   3.56103E+00   2.39596E+00   1.81154E+01
   3.62305E+00   2.35600E+00   1.80923E+01
   3.68799E+00   2.28939E+00   1.80538E+01
   3.75000E+00   2.19615E+00   1.80000E+01
   3.43000E+00   1.83959E+00   1.86176E+01

POINT_DATA 10
SCALARS Z-dimension float
LOOKUP_TABLE default
   1.80000E+01
   1.80538E+01
   1.80923E+01
   1.81154E+01
   1.81230E+01
   1.81154E+01
   1.80923E+01
   1.80538E+01
   1.80000E+01
   1.86176E+01
